47
Mode 0 Frame: * (null), Energy   -1000.0000000
C -2.687604 -0.304407 0.457965
I -4.251116 1.464001 -0.540026
H -2.548174 0.286164 1.359176
H -3.475417 -1.052667 0.428432
H -1.995614 -0.204405 -0.374128
C 0.638363 0.183261 1.682237
C 0.852740 -0.927769 0.681908
C 2.024424 -1.024984 -0.099261
B 3.243086 -0.041261 -0.036949
O 3.569064 0.800552 0.997592
C 4.651951 1.652759 0.542473
C 5.574550 1.949246 1.714289
C 4.013357 2.940700 0.024292
C 5.290091 0.784844 -0.595851
C 5.866932 1.580411 -1.756521
C 6.315849 -0.220692 -0.074093
O 4.152690 0.019480 -1.064485
C 2.138959 -2.090030 -1.014363
C 1.140787 -3.042805 -1.157617
C -0.020123 -2.947511 -0.384936
C -0.164284 -1.892387 0.534850
N -1.367667 -1.795179 1.290169
C -2.089561 -3.063951 1.414299
C -2.233892 -3.674526 0.036397
O -0.956900 -3.913436 -0.548278
H -0.238390 0.794678 1.413925
H 1.511304 0.841020 1.739879
H 0.455292 -0.220365 2.693645
H 5.045832 2.568927 2.455323
H 5.906607 1.028428 2.213146
H 6.461015 2.506549 1.373438
H 3.409539 3.389122 0.828411
H 4.776014 3.672281 -0.281463
H 3.351301 2.744207 -0.833318
H 6.664919 2.252081 -1.403409
H 6.302991 0.892330 -2.497514
H 5.096731 2.181002 -2.259702
H 7.244955 0.277487 0.240549
H 6.560734 -0.930023 -0.879764
H 5.918438 -0.793869 0.778004
H 3.042025 -2.168191 -1.626063
H 1.231112 -3.873446 -1.862605
H -1.198580 -1.384021 2.207342
H -1.547574 -3.760520 2.077897
H -3.081878 -2.872772 1.848387
H -2.739590 -4.647843 0.094113
H -2.820496 -3.015575 -0.627354
47
Mode 0 Frame: * Frequency(6) -606.2300
C -2.562477 -0.445890 0.535964
I -4.256671 1.470301 -0.543559
H -2.547446 0.291072 1.360485
H -3.483270 -1.051111 0.427344
H -1.997637 -0.203449 -0.384536
C 0.638693 0.185103 1.682184
C 0.851997 -0.925575 0.682435
C 2.024141 -1.024968 -0.096375
B 3.244025 -0.040601 -0.036197
O 3.568659 0.800468 0.997832
C 4.652093 1.653017 0.542428
C 5.574531 1.949196 1.714316
C 4.013250 2.940696 0.024304
C 5.290172 0.784872 -0.595804
C 5.866742 1.580316 -1.756582
C 6.315715 -0.220789 -0.074141
O 4.151902 0.018870 -1.064250
C 2.135246 -2.090842 -1.012284
C 1.140550 -3.044387 -1.154926
C -0.024823 -2.947285 -0.383748
C -0.166206 -1.883728 0.523110
N -1.409115 -1.750040 1.262789
C -2.096557 -3.055952 1.408005
C -2.234763 -3.676372 0.036183
O -0.956373 -3.911612 -0.548412
H -0.233003 0.801702 1.411054
H 1.514344 0.838757 1.741181
H 0.453712 -0.219980 2.692192
H 5.045811 2.568965 2.455235
H 5.906601 1.028371 2.213119
H 6.460925 2.506449 1.373285
H 3.409566 3.389169 0.828465
H 4.776055 3.672094 -0.281395
H 3.351207 2.744311 -0.833332
H 6.664638 2.251891 -1.403163
H 6.302942 0.892237 -2.497452
H 5.096614 2.180986 -2.259737
H 7.244665 0.277685 0.240381
H 6.560725 -0.930013 -0.879839
H 5.918499 -0.793967 0.778042
H 3.037569 -2.168168 -1.625392
H 1.230909 -3.875179 -1.859132
H -1.209124 -1.381506 2.198822
H -1.510929 -3.709698 2.075700
H -3.084478 -2.881714 1.854917
H -2.735954 -4.650818 0.102902
H -2.824331 -3.026448 -0.633191
47
Mode 0 Frame: * Frequency(6) -606.2300
C -2.450910 -0.572042 0.605510
I -4.261624 1.475919 -0.546710
H -2.546797 0.295448 1.361653
H -3.490272 -1.049724 0.426373
H -1.999441 -0.202597 -0.393815
C 0.638987 0.186745 1.682138
C 0.851335 -0.923618 0.682905
C 2.023890 -1.024954 -0.093802
B 3.244863 -0.040012 -0.035527
O 3.568297 0.800392 0.998047
C 4.652220 1.653247 0.542388
C 5.574514 1.949152 1.714341
C 4.013154 2.940693 0.024315
C 5.290244 0.784896 -0.595762
C 5.866572 1.580231 -1.756637
C 6.315596 -0.220876 -0.074184
O 4.151199 0.018326 -1.064041
C 2.131936 -2.091566 -1.010430
C 1.140339 -3.045798 -1.152527
C -0.029013 -2.947084 -0.382689
C -0.167920 -1.876007 0.512641
N -1.446072 -1.709792 1.238376
C -2.102796 -3.048820 1.402393
C -2.235539 -3.678018 0.035992
O -0.955904 -3.909987 -0.548531
H -0.228200 0.807965 1.408494
H 1.517055 0.836739 1.742341
H 0.452303 -0.219637 2.690896
H 5.045792 2.568998 2.455157
H 5.906596 1.028321 2.213095
H 6.460845 2.506360 1.373148
H 3.409591 3.389211 0.828513
H 4.776092 3.671927 -0.281334
H 3.351123 2.744404 -0.833344
H 6.664388 2.251722 -1.402944
H 6.302898 0.892154 -2.497397
H 5.096510 2.180971 -2.259769
H 7.244407 0.277861 0.240232
H 6.560717 -0.930003 -0.879905
H 5.918553 -0.794055 0.778075
H 3.033597 -2.168148 -1.624794
H 1.230728 -3.876725 -1.856036
H -1.218525 -1.379263 2.191225
H -1.478256 -3.664383 2.073741
H -3.086796 -2.889686 1.860740
H -2.732712 -4.653471 0.110738
H -2.827750 -3.036142 -0.638396
47
Mode 0 Frame: * Frequency(6) -606.2300
C -2.364993 -0.669191 0.659067
I -4.265438 1.480245 -0.549136
H -2.546298 0.298818 1.362551
H -3.495664 -1.048656 0.425626
H -2.000830 -0.201941 -0.400962
C 0.639214 0.188009 1.682102
C 0.850825 -0.922112 0.683266
C 2.023696 -1.024943 -0.091821
B 3.245507 -0.039559 -0.035011
O 3.568019 0.800335 0.998212
C 4.652318 1.653424 0.542357
C 5.574501 1.949118 1.714359
C 4.013080 2.940690 0.024324
C 5.290300 0.784915 -0.595729
C 5.866442 1.580166 -1.756679
C 6.315504 -0.220943 -0.074217
O 4.150658 0.017908 -1.063880
C 2.129386 -2.092123 -1.009003
C 1.140176 -3.046884 -1.150679
C -0.032240 -2.946929 -0.381873
C -0.169239 -1.870061 0.504580
N -1.474532 -1.678798 1.219576
C -2.107600 -3.043328 1.398072
C -2.236137 -3.679286 0.035844
O -0.955542 -3.908734 -0.548623
H -0.224501 0.812788 1.406522
H 1.519142 0.835185 1.743235
H 0.451218 -0.219372 2.689899
H 5.045778 2.569024 2.455097
H 5.906592 1.028281 2.213076
H 6.460784 2.506291 1.373042
H 3.409609 3.389243 0.828550
H 4.776120 3.671798 -0.281287
H 3.351058 2.744476 -0.833353
H 6.664195 2.251591 -1.402775
H 6.302864 0.892090 -2.497355
H 5.096430 2.180960 -2.259793
H 7.244208 0.277996 0.240117
H 6.560711 -0.929996 -0.879957
H 5.918595 -0.794122 0.778101
H 3.030537 -2.168132 -1.624334
H 1.230588 -3.877915 -1.853651
H -1.225765 -1.377536 2.185374
H -1.453094 -3.629486 2.072233
H -3.088581 -2.895826 1.865224
H -2.730215 -4.655515 0.116773
H -2.830383 -3.043608 -0.642404
47
Mode 0 Frame: * Frequency(6) -606.2300
C -2.314035 -0.726810 0.690832
I -4.267700 1.482811 -0.550575
H -2.546001 0.300817 1.363085
H -3.498863 -1.048022 0.425183
H -2.001654 -0.201552 -0.405200
C 0.639348 0.188760 1.682080
C 0.850522 -0.921218 0.683481
C 2.023581 -1.024936 -0.090646
B 3.245890 -0.039290 -0.034705
O 3.567853 0.800300 0.998310
C 4.652376 1.653529 0.542339
C 5.574493 1.949098 1.714370
C 4.013037 2.940688 0.024329
C 5.290333 0.784926 -0.595710
C 5.866364 1.580127 -1.756704
C 6.315449 -0.220982 -0.074236
O 4.150337 0.017659 -1.063784
C 2.127874 -2.092454 -1.008156
C 1.140079 -3.047529 -1.149583
C -0.034154 -2.946837 -0.381389
C -0.170022 -1.866534 0.499799
N -1.491412 -1.660415 1.208426
C -2.110449 -3.040070 1.395508
C -2.236492 -3.680038 0.035757
O -0.955328 -3.907992 -0.548677
H -0.222307 0.815649 1.405353
H 1.520380 0.834263 1.743765
H 0.450575 -0.219215 2.689307
H 5.045770 2.569039 2.455062
H 5.906590 1.028258 2.213065
H 6.460747 2.506250 1.372980
H 3.409620 3.389262 0.828573
H 4.776137 3.671722 -0.281259
H 3.351020 2.744518 -0.833359
H 6.664080 2.251514 -1.402675
H 6.302844 0.892052 -2.497330
H 5.096383 2.180954 -2.259807
H 7.244090 0.278077 0.240049
H 6.560708 -0.929992 -0.879987
H 5.918620 -0.794162 0.778116
H 3.028723 -2.168123 -1.624061
H 1.230505 -3.878621 -1.852237
H -1.230059 -1.376512 2.181904
H -1.438171 -3.608789 2.071338
H -3.089640 -2.899467 1.867884
H -2.728734 -4.656726 0.120352
H -2.831945 -3.048036 -0.644781
47
Mode 0 Frame: * Frequency(6) -606.2300
C -2.303559 -0.738655 0.697362
I -4.268165 1.483338 -0.550870
H -2.545940 0.301228 1.363194
H -3.499520 -1.047892 0.425092
H -2.001823 -0.201472 -0.406072
C 0.639376 0.188914 1.682076
C 0.850460 -0.921034 0.683525
C 2.023557 -1.024935 -0.090404
B 3.245969 -0.039235 -0.034642
O 3.567819 0.800293 0.998330
C 4.652388 1.653550 0.542335
C 5.574491 1.949094 1.714373
C 4.013028 2.940688 0.024330
C 5.290340 0.784928 -0.595706
C 5.866348 1.580119 -1.756709
C 6.315438 -0.220991 -0.074240
O 4.150271 0.017608 -1.063764
C 2.127564 -2.092522 -1.007982
C 1.140059 -3.047661 -1.149358
C -0.034547 -2.946818 -0.381290
C -0.170183 -1.865809 0.498816
N -1.494882 -1.656636 1.206134
C -2.111035 -3.039401 1.394982
C -2.236565 -3.680193 0.035739
O -0.955284 -3.907839 -0.548688
H -0.221856 0.816237 1.405113
H 1.520635 0.834074 1.743874
H 0.450442 -0.219183 2.689185
H 5.045768 2.569042 2.455054
H 5.906590 1.028254 2.213063
H 6.460739 2.506242 1.372967
H 3.409623 3.389266 0.828577
H 4.776140 3.671706 -0.281253
H 3.351012 2.744527 -0.833360
H 6.664057 2.251498 -1.402654
H 6.302840 0.892044 -2.497325
H 5.096373 2.180952 -2.259810
H 7.244066 0.278093 0.240035
H 6.560707 -0.929991 -0.879994
H 5.918625 -0.794170 0.778119
H 3.028350 -2.168121 -1.624004
H 1.230488 -3.878766 -1.851946
H -1.230942 -1.376301 2.181191
H -1.435103 -3.604534 2.071154
H -3.089857 -2.900216 1.868431
H -2.728430 -4.656975 0.121088
H -2.832266 -3.048947 -0.645270
47
Mode 0 Frame: * Frequency(6) -606.2300
C -2.334700 -0.703442 0.677950
I -4.266782 1.481770 -0.549991
H -2.546121 0.300007 1.362868
H -3.497566 -1.048279 0.425363
H -2.001320 -0.201709 -0.403481
C 0.639294 0.188455 1.682089
C 0.850645 -0.921580 0.683394
C 2.023627 -1.024939 -0.091122
B 3.245735 -0.039399 -0.034829
O 3.567920 0.800314 0.998270
C 4.652352 1.653486 0.542346
C 5.574496 1.949106 1.714366
C 4.013054 2.940689 0.024327
C 5.290320 0.784922 -0.595718
C 5.866395 1.580143 -1.756693
C 6.315471 -0.220966 -0.074228
O 4.150467 0.017760 -1.063823
C 2.128488 -2.092320 -1.008499
C 1.140118 -3.047267 -1.150028
C -0.033378 -2.946874 -0.381585
C -0.169705 -1.867965 0.501738
N -1.484566 -1.667870 1.212948
C -2.109294 -3.041391 1.396548
C -2.236348 -3.679733 0.035792
O -0.955415 -3.908293 -0.548655
H -0.223197 0.814489 1.405827
H 1.519878 0.834637 1.743550
H 0.450835 -0.219279 2.689547
H 5.045773 2.569033 2.455076
H 5.906591 1.028268 2.213070
H 6.460762 2.506267 1.373005
H 3.409616 3.389255 0.828564
H 4.776130 3.671753 -0.281270
H 3.351036 2.744501 -0.833356
H 6.664127 2.251545 -1.402715
H 6.302853 0.892067 -2.497340
H 5.096402 2.180956 -2.259801
H 7.244138 0.278044 0.240077
H 6.560709 -0.929994 -0.879975
H 5.918610 -0.794146 0.778110
H 3.029459 -2.168127 -1.624171
H 1.230539 -3.878335 -1.852811
H -1.228318 -1.376927 2.183311
H -1.444223 -3.617183 2.071701
H -3.089210 -2.897991 1.866805
H -2.729335 -4.656235 0.118901
H -2.831312 -3.046240 -0.643817
47
Mode 0 Frame: * Frequency(6) -606.2300
C -2.404085 -0.624988 0.634699
I -4.263702 1.478276 -0.548032
H -2.546525 0.297285 1.362142
H -3.493211 -1.049142 0.425966
H -2.000198 -0.202239 -0.397710
C 0.639111 0.187434 1.682118
C 0.851057 -0.922797 0.683102
C 2.023784 -1.024948 -0.092722
B 3.245214 -0.039765 -0.035246
O 3.568145 0.800361 0.998137
C 4.652273 1.653343 0.542371
C 5.574507 1.949134 1.714351
C 4.013114 2.940691 0.024320
C 5.290275 0.784906 -0.595744
C 5.866501 1.580196 -1.756660
C 6.315546 -0.220912 -0.074202
O 4.150904 0.018098 -1.063953
C 2.130546 -2.091870 -1.009652
C 1.140250 -3.046390 -1.151520
C -0.030772 -2.947000 -0.382244
C -0.168639 -1.872766 0.508248
N -1.461583 -1.692900 1.228130
C -2.105414 -3.045827 1.400038
C -2.235865 -3.678709 0.035911
O -0.955707 -3.909304 -0.548581
H -0.226184 0.810594 1.407419
H 1.518192 0.835892 1.742828
H 0.451712 -0.219493 2.690353
H 5.045785 2.569012 2.455125
H 5.906594 1.028299 2.213085
H 6.460812 2.506322 1.373090
H 3.409601 3.389229 0.828534
H 4.776107 3.671857 -0.281308
H 3.351088 2.744443 -0.833349
H 6.664282 2.251650 -1.402852
H 6.302880 0.892119 -2.497374
H 5.096467 2.180965 -2.259782
H 7.244299 0.277935 0.240169
H 6.560714 -0.929999 -0.879933
H 5.918576 -0.794091 0.778089
H 3.031929 -2.168139 -1.624543
H 1.230652 -3.877373 -1.854736
H -1.222471 -1.378322 2.188036
H -1.464543 -3.645364 2.072919
H -3.087769 -2.893032 1.863184
H -2.731351 -4.654585 0.114027
H -2.829185 -3.040211 -0.640580
47
Mode 0 Frame: * Frequency(6) -606.2300
C -2.504192 -0.511794 0.572296
I -4.259258 1.473236 -0.545205
H -2.547107 0.293358 1.361095
H -3.486928 -1.050386 0.426837
H -1.998579 -0.203004 -0.389384
C 0.638847 0.185961 1.682160
C 0.851651 -0.924553 0.682680
C 2.024010 -1.024961 -0.095031
B 3.244463 -0.040293 -0.035847
O 3.568470 0.800428 0.997944
C 4.652160 1.653137 0.542407
C 5.574522 1.949173 1.714329
C 4.013200 2.940694 0.024310
C 5.290210 0.784884 -0.595782
C 5.866653 1.580272 -1.756611
C 6.315653 -0.220835 -0.074163
O 4.151535 0.018586 -1.064141
C 2.133517 -2.091220 -1.011316
C 1.140440 -3.045124 -1.153673
C -0.027012 -2.947180 -0.383195
C -0.167101 -1.879694 0.517641
N -1.428422 -1.729014 1.250035
C -2.099816 -3.052226 1.405073
C -2.235168 -3.677232 0.036083
O -0.956128 -3.910763 -0.548474
H -0.230494 0.804974 1.409716
H 1.515760 0.837703 1.741787
H 0.452976 -0.219801 2.691515
H 5.045801 2.568982 2.455195
H 5.906599 1.028345 2.213106
H 6.460883 2.506402 1.373213
H 3.409579 3.389191 0.828490
H 4.776074 3.672006 -0.281363
H 3.351163 2.744360 -0.833338
H 6.664507 2.251802 -1.403049
H 6.302919 0.892193 -2.497424
H 5.096560 2.180978 -2.259754
H 7.244531 0.277777 0.240303
H 6.560721 -0.930008 -0.879874
H 5.918527 -0.794013 0.778059
H 3.035494 -2.168158 -1.625080
H 1.230814 -3.875987 -1.857515
H -1.214035 -1.380334 2.194853
H -1.493860 -3.686024 2.074677
H -3.085689 -2.885879 1.857959
H -2.734260 -4.652204 0.106996
H -2.826117 -3.031513 -0.635910
47
Mode 0 Frame: * Frequency(6) -606.2300
C -2.624176 -0.376127 0.497504
I -4.253932 1.467195 -0.541817
H -2.547805 0.288652 1.359840
H -3.479398 -1.051878 0.427880
H -1.996640 -0.203921 -0.379404
C 0.638530 0.184195 1.682210
C 0.852363 -0.926657 0.682175
C 2.024281 -1.024976 -0.097798
B 3.243562 -0.040926 -0.036568
O 3.568858 0.800509 0.997714
C 4.652023 1.652890 0.542450
C 5.574540 1.949221 1.714303
C 4.013303 2.940698 0.024298
C 5.290132 0.784858 -0.595827
C 5.866836 1.580363 -1.756552
C 6.315781 -0.220741 -0.074117
O 4.152290 0.019171 -1.064366
C 2.137077 -2.090442 -1.013309
C 1.140667 -3.043607 -1.156253
C -0.022505 -2.947397 -0.384334
C -0.165258 -1.887997 0.528899
N -1.388678 -1.772297 1.276290
C -2.093108 -3.059896 1.411109
C -2.234333 -3.675462 0.036288
O -0.956633 -3.912512 -0.548346
H -0.235659 0.798239 1.412470
H 1.512845 0.839873 1.740539
H 0.454491 -0.220170 2.692908
H 5.045821 2.568946 2.455279
H 5.906604 1.028399 2.213132
H 6.460969 2.506498 1.373360
H 3.409553 3.389146 0.828438
H 4.776035 3.672186 -0.281428
H 3.351253 2.744260 -0.833325
H 6.664777 2.251985 -1.403284
H 6.302966 0.892283 -2.497483
H 5.096672 2.180994 -2.259720
H 7.244808 0.277587 0.240464
H 6.560730 -0.930018 -0.879802
H 5.918469 -0.793919 0.778023
H 3.039766 -2.168179 -1.625723
H 1.231009 -3.874325 -1.860845
H -1.203925 -1.382746 2.203023
H -1.528998 -3.734758 2.076783
H -3.083196 -2.877305 1.851697
H -2.737747 -4.649351 0.098568
H -2.822440 -3.021087 -0.630313
47
Mode 0 Frame: * Frequency(6) -606.2300
C -2.751032 -0.232687 0.418426
I -4.248300 1.460807 -0.538235
H -2.548543 0.283676 1.358512
H -3.471436 -1.053456 0.428984
H -1.994588 -0.204889 -0.368852
C 0.638196 0.182327 1.682264
C 0.853117 -0.928881 0.681641
C 2.024567 -1.024992 -0.100724
B 3.242610 -0.041596 -0.037330
O 3.569270 0.800595 0.997470
C 4.651879 1.652628 0.542496
C 5.574560 1.949271 1.714275
C 4.013411 2.940702 0.024286
C 5.290050 0.784830 -0.595875
C 5.867028 1.580459 -1.756490
C 6.315917 -0.220643 -0.074069
O 4.153090 0.019789 -1.064604
C 2.140841 -2.089618 -1.015417
C 1.140907 -3.042003 -1.158981
C -0.017741 -2.947625 -0.385538
C -0.163310 -1.896777 0.540801
N -1.346656 -1.818061 1.304048
C -2.086014 -3.068006 1.417489
C -2.233451 -3.673590 0.036506
O -0.957167 -3.914360 -0.548210
H -0.241121 0.791117 1.415380
H 1.509763 0.842167 1.739219
H 0.456093 -0.220560 2.694382
H 5.045843 2.568908 2.455367
H 5.906610 1.028457 2.213160
H 6.461061 2.506600 1.373516
H 3.409525 3.389098 0.828384
H 4.775993 3.672376 -0.281498
H 3.351349 2.744154 -0.833311
H 6.665061 2.252177 -1.403534
H 6.303016 0.892377 -2.497545
H 5.096790 2.181010 -2.259684
H 7.245102 0.277387 0.240634
H 6.560738 -0.930028 -0.879726
H 5.918407 -0.793819 0.777985
H 3.044284 -2.168203 -1.626403
H 1.231215 -3.872567 -1.864365
H -1.193235 -1.385296 2.211661
H -1.566150 -3.786282 2.079011
H -3.080560 -2.868239 1.845077
H -2.741433 -4.646335 0.089658
H -2.818552 -3.010063 -0.624395
47
Mode 0 Frame: * Frequency(6) -606.2300
C -2.871016 -0.097020 0.343634
I -4.242974 1.454766 -0.534847
H -2.549241 0.278970 1.357257
H -3.463906 -1.054948 0.430027
H -1.992649 -0.205806 -0.358872
C 0.637879 0.180561 1.682314
C 0.853829 -0.930985 0.681136
C 2.024838 -1.025007 -0.103491
B 3.241709 -0.042229 -0.038051
O 3.569658 0.800676 0.997240
C 4.651742 1.652381 0.542539
C 5.574578 1.949319 1.714249
C 4.013514 2.940706 0.024274
C 5.289972 0.784804 -0.595920
C 5.867211 1.580550 -1.756431
C 6.316045 -0.220549 -0.074023
O 4.153845 0.020374 -1.064829
C 2.144401 -2.088840 -1.017410
C 1.141134 -3.040486 -1.161561
C -0.013234 -2.947842 -0.386677
C -0.161467 -1.905080 0.552059
N -1.306912 -1.861344 1.330303
C -2.079306 -3.075676 1.423525
C -2.232616 -3.671820 0.036711
O -0.957672 -3.916109 -0.548082
H -0.246286 0.784382 1.418134
H 1.506848 0.844337 1.737971
H 0.457608 -0.220929 2.695775
H 5.045863 2.568872 2.455451
H 5.906615 1.028511 2.213186
H 6.461147 2.506696 1.373663
H 3.409499 3.389053 0.828332
H 4.775954 3.672556 -0.281563
H 3.351439 2.744054 -0.833298
H 6.665331 2.252360 -1.403769
H 6.303063 0.892467 -2.497604
H 5.096902 2.181026 -2.259650
H 7.245379 0.277197 0.240795
H 6.560747 -0.930038 -0.879654
H 5.918349 -0.793725 0.777949
H 3.048556 -2.168224 -1.627046
H 1.231410 -3.870905 -1.867695
H -1.183125 -1.387708 2.219831
H -1.601288 -3.835016 2.081117
H -3.078067 -2.859665 1.838815
H -2.744920 -4.643482 0.081230
H -2.814875 -2.999637 -0.618798
47
Mode 0 Frame: * Frequency(6) -606.2300
C -2.971123 0.016174 0.281231
I -4.238530 1.449726 -0.532020
H -2.549823 0.275043 1.356210
H -3.457623 -1.056192 0.430898
H -1.991030 -0.206571 -0.350546
C 0.637615 0.179088 1.682356
C 0.854423 -0.932741 0.680714
C 2.025064 -1.025020 -0.105800
B 3.240958 -0.042757 -0.038652
O 3.569983 0.800743 0.997047
C 4.651629 1.652175 0.542575
C 5.574593 1.949358 1.714227
C 4.013600 2.940709 0.024264
C 5.289907 0.784782 -0.595958
C 5.867363 1.580626 -1.756382
C 6.316152 -0.220472 -0.073984
O 4.154476 0.020862 -1.065017
C 2.147372 -2.088190 -1.019074
C 1.141324 -3.039220 -1.163714
C -0.009474 -2.948022 -0.387628
C -0.159929 -1.912008 0.561452
N -1.273751 -1.897458 1.352208
C -2.073708 -3.082075 1.428560
C -2.231919 -3.670343 0.036883
O -0.958093 -3.917568 -0.547975
H -0.250596 0.778762 1.420431
H 1.504416 0.846148 1.736930
H 0.458872 -0.221237 2.696937
H 5.045879 2.568842 2.455521
H 5.906620 1.028557 2.213207
H 6.461218 2.506776 1.373786
H 3.409477 3.389015 0.828288
H 4.775921 3.672705 -0.281618
H 3.351514 2.743971 -0.833287
H 6.665556 2.252512 -1.403966
H 6.303102 0.892541 -2.497654
H 5.096995 2.181039 -2.259622
H 7.245611 0.277039 0.240929
H 6.560754 -0.930047 -0.879595
H 5.918300 -0.793647 0.777919
H 3.052121 -2.168243 -1.627583
H 1.231572 -3.869519 -1.870474
H -1.174689 -1.389720 2.226648
H -1.630605 -3.875676 2.082875
H -3.075987 -2.852512 1.833590
H -2.747829 -4.641101 0.074199
H -2.811807 -2.990939 -0.614128
47
Mode 0 Frame: * Frequency(6) -606.2300
C -3.040508 0.094628 0.237980
I -4.235450 1.446232 -0.530061
H -2.550227 0.272321 1.355484
H -3.453268 -1.057055 0.431501
H -1.989908 -0.207101 -0.344775
C 0.637432 0.178067 1.682385
C 0.854835 -0.933958 0.680422
C 2.025221 -1.025029 -0.107400
B 3.240437 -0.043123 -0.039069
O 3.570208 0.800790 0.996914
C 4.651550 1.652032 0.542600
C 5.574604 1.949386 1.714212
C 4.013660 2.940711 0.024257
C 5.289862 0.784766 -0.595984
C 5.867469 1.580679 -1.756349
C 6.316227 -0.220418 -0.073958
O 4.154913 0.021200 -1.065147
C 2.149430 -2.087740 -1.020227
C 1.141456 -3.038343 -1.165206
C -0.006868 -2.948148 -0.388287
C -0.158863 -1.916809 0.567962
N -1.250768 -1.922488 1.367390
C -2.069828 -3.086511 1.432050
C -2.231436 -3.669319 0.037002
O -0.958385 -3.918579 -0.547901
H -0.253583 0.774867 1.422023
H 1.502730 0.847403 1.736208
H 0.459749 -0.221451 2.697743
H 5.045891 2.568821 2.455570
H 5.906623 1.028588 2.213222
H 6.461268 2.506831 1.373871
H 3.409462 3.388989 0.828258
H 4.775898 3.672809 -0.281656
H 3.351566 2.743913 -0.833280
H 6.665711 2.252617 -1.404103
H 6.303129 0.892593 -2.497688
H 5.097060 2.181048 -2.259603
H 7.245772 0.276930 0.241021
H 6.560759 -0.930052 -0.879553
H 5.918266 -0.793592 0.777898
H 3.054591 -2.168255 -1.627955
H 1.231685 -3.868557 -1.872399
H -1.168842 -1.391115 2.231373
H -1.650925 -3.903857 2.084093
H -3.074546 -2.847553 1.829969
H -2.749845 -4.639451 0.069325
H -2.809680 -2.984910 -0.610891
47
Mode 0 Frame: * Frequency(6) -606.2300
C -3.071649 0.129841 0.218568
I -4.234067 1.444664 -0.529182
H -2.550408 0.271100 1.355158
H -3.451314 -1.057442 0.431772
H -1.989405 -0.207338 -0.342184
C 0.637350 0.177608 1.682398
C 0.855020 -0.934504 0.680291
C 2.025291 -1.025033 -0.108118
B 3.240203 -0.043287 -0.039256
O 3.570309 0.800811 0.996854
C 4.651514 1.651968 0.542611
C 5.574609 1.949398 1.714205
C 4.013686 2.940712 0.024254
C 5.289842 0.784760 -0.595996
C 5.867516 1.580703 -1.756333
C 6.316260 -0.220393 -0.073946
O 4.155109 0.021352 -1.065206
C 2.150354 -2.087538 -1.020744
C 1.141515 -3.037949 -1.165876
C -0.005699 -2.948204 -0.388582
C -0.158385 -1.918965 0.570884
N -1.240452 -1.933722 1.374204
C -2.068087 -3.088501 1.433616
C -2.231219 -3.668859 0.037055
O -0.958516 -3.919033 -0.547868
H -0.254924 0.773119 1.422737
H 1.501973 0.847966 1.735884
H 0.460142 -0.221547 2.698105
H 5.045896 2.568812 2.455592
H 5.906624 1.028602 2.213229
H 6.461291 2.506856 1.373909
H 3.409455 3.388978 0.828245
H 4.775888 3.672856 -0.281673
H 3.351590 2.743887 -0.833276
H 6.665781 2.252664 -1.404164
H 6.303142 0.892616 -2.497703
H 5.097089 2.181052 -2.259594
H 7.245844 0.276881 0.241063
H 6.560761 -0.930055 -0.879534
H 5.918251 -0.793568 0.777889
H 3.055700 -2.168261 -1.628122
H 1.231736 -3.868126 -1.873264
H -1.166218 -1.391741 2.233493
H -1.660045 -3.916506 2.084640
H -3.073899 -2.845328 1.828343
H -2.750750 -4.638711 0.067138
H -2.808726 -2.982203 -0.609438
47
Mode 0 Frame: * Frequency(6) -606.2300
C -3.061173 0.117996 0.225098
I -4.234532 1.445191 -0.529477
H -2.550347 0.271511 1.355267
H -3.451971 -1.057312 0.431681
H -1.989574 -0.207258 -0.343056
C 0.637378 0.177762 1.682394
C 0.854958 -0.934320 0.680335
C 2.025267 -1.025032 -0.107876
B 3.240282 -0.043232 -0.039193
O 3.570275 0.800804 0.996874
C 4.651526 1.651989 0.542607
C 5.574607 1.949394 1.714208
C 4.013677 2.940712 0.024255
C 5.289849 0.784762 -0.595992
C 5.867500 1.580695 -1.756338
C 6.316249 -0.220402 -0.073950
O 4.155043 0.021301 -1.065186
C 2.150044 -2.087606 -1.020570
C 1.141495 -3.038081 -1.165651
C -0.006092 -2.948185 -0.388483
C -0.158546 -1.918240 0.569901
N -1.243922 -1.929943 1.371912
C -2.068673 -3.087832 1.433090
C -2.231292 -3.669014 0.037037
O -0.958472 -3.918880 -0.547879
H -0.254473 0.773707 1.422497
H 1.502228 0.847777 1.735993
H 0.460009 -0.221515 2.697983
H 5.045894 2.568815 2.455584
H 5.906624 1.028598 2.213227
H 6.461283 2.506848 1.373896
H 3.409458 3.388982 0.828249
H 4.775891 3.672840 -0.281667
H 3.351582 2.743896 -0.833277
H 6.665758 2.252648 -1.404143
H 6.303138 0.892608 -2.497698
H 5.097079 2.181050 -2.259597
H 7.245820 0.276897 0.241049
H 6.560760 -0.930054 -0.879541
H 5.918256 -0.793576 0.777892
H 3.055327 -2.168259 -1.628065
H 1.231719 -3.868271 -1.872973
H -1.167101 -1.391530 2.232780
H -1.656977 -3.912251 2.084456
H -3.074116 -2.846077 1.828890
H -2.750446 -4.638960 0.067874
H -2.809047 -2.983114 -0.609927
47
Mode 0 Frame: * Frequency(6) -606.2300
C -3.010215 0.060377 0.256863
I -4.236794 1.447757 -0.530916
H -2.550050 0.273510 1.355801
H -3.455170 -1.056678 0.431238
H -1.990398 -0.206869 -0.347294
C 0.637512 0.178513 1.682372
C 0.854655 -0.933426 0.680550
C 2.025152 -1.025025 -0.106701
B 3.240665 -0.042963 -0.038887
O 3.570109 0.800769 0.996972
C 4.651584 1.652094 0.542589
C 5.574599 1.949374 1.714219
C 4.013634 2.940710 0.024260
C 5.289882 0.784773 -0.595973
C 5.867422 1.580656 -1.756363
C 6.316194 -0.220441 -0.073969
O 4.154722 0.021052 -1.065090
C 2.148532 -2.087937 -1.019723
C 1.141398 -3.038726 -1.164555
C -0.008006 -2.948093 -0.387999
C -0.159329 -1.914713 0.565120
N -1.260802 -1.911560 1.360762
C -2.071522 -3.084574 1.430526
C -2.231647 -3.669766 0.036950
O -0.958258 -3.918138 -0.547933
H -0.252279 0.776568 1.421328
H 1.503466 0.846855 1.736523
H 0.459366 -0.221358 2.697391
H 5.045886 2.568830 2.455549
H 5.906622 1.028575 2.213216
H 6.461246 2.506807 1.373834
H 3.409469 3.389001 0.828272
H 4.775908 3.672764 -0.281639
H 3.351544 2.743938 -0.833283
H 6.665643 2.252571 -1.404043
H 6.303118 0.892570 -2.497673
H 5.097032 2.181044 -2.259611
H 7.245702 0.276978 0.240981
H 6.560757 -0.930050 -0.879571
H 5.918281 -0.793616 0.777907
H 3.053513 -2.168250 -1.627792
H 1.231636 -3.868977 -1.871559
H -1.171395 -1.390506 2.229310
H -1.642054 -3.891554 2.083561
H -3.075175 -2.849718 1.831550
H -2.748965 -4.640171 0.071453
H -2.810609 -2.987542 -0.612304
47
Mode 0 Frame: * Frequency(6) -606.2300
C -2.924298 -0.036772 0.310420
I -4.240608 1.452083 -0.533342
H -2.549551 0.276880 1.356699
H -3.460562 -1.055610 0.430491
H -1.991787 -0.206213 -0.354441
C 0.637739 0.179777 1.682336
C 0.854145 -0.931920 0.680911
C 2.024958 -1.025014 -0.104720
B 3.241309 -0.042510 -0.038371
O 3.569831 0.800712 0.997137
C 4.651682 1.652271 0.542558
C 5.574586 1.949340 1.714237
C 4.013560 2.940707 0.024269
C 5.289938 0.784792 -0.595940
C 5.867292 1.580591 -1.756405
C 6.316102 -0.220508 -0.074002
O 4.154181 0.020634 -1.064929
C 2.145982 -2.088494 -1.018296
C 1.141235 -3.039812 -1.162707
C -0.011233 -2.947938 -0.387183
C -0.160648 -1.908767 0.557059
N -1.289262 -1.880566 1.341962
C -2.076326 -3.079082 1.426205
C -2.232245 -3.671034 0.036802
O -0.957896 -3.916885 -0.548025
H -0.248580 0.781391 1.419356
H 1.505553 0.845301 1.737417
H 0.458281 -0.221093 2.696394
H 5.045872 2.568856 2.455489
H 5.906618 1.028535 2.213197
H 6.461185 2.506738 1.373728
H 3.409487 3.389033 0.828309
H 4.775936 3.672635 -0.281592
H 3.351479 2.744010 -0.833292
H 6.665450 2.252440 -1.403874
H 6.303084 0.892506 -2.497631
H 5.096952 2.181033 -2.259635
H 7.245503 0.277113 0.240866
H 6.560751 -0.930043 -0.879623
H 5.918323 -0.793683 0.777933
H 3.050453 -2.168234 -1.627332
H 1.231496 -3.870167 -1.869174
H -1.178635 -1.388779 2.223459
H -1.616892 -3.856657 2.082053
H -3.076960 -2.855858 1.836034
H -2.746468 -4.642215 0.077488
H -2.813242 -2.995008 -0.616312
47
Mode 0 Frame: * Frequency(6) -606.2300
C -2.812731 -0.162924 0.379966
I -4.245561 1.457701 -0.536493
H -2.548902 0.281256 1.357867
H -3.467564 -1.054223 0.429520
H -1.993591 -0.205361 -0.363720
C 0.638033 0.181419 1.682290
C 0.853483 -0.929963 0.681381
C 2.024707 -1.025000 -0.102147
B 3.242147 -0.041921 -0.037701
O 3.569469 0.800636 0.997352
C 4.651809 1.652501 0.542518
C 5.574569 1.949296 1.714262
C 4.013464 2.940704 0.024280
C 5.290010 0.784816 -0.595898
C 5.867122 1.580506 -1.756460
C 6.315983 -0.220595 -0.074045
O 4.153478 0.020090 -1.064720
C 2.142672 -2.089218 -1.016442
C 1.141024 -3.041223 -1.160308
C -0.015423 -2.947737 -0.386124
C -0.162362 -1.901046 0.546590
N -1.326219 -1.840318 1.317549
C -2.082565 -3.071950 1.420593
C -2.233021 -3.672680 0.036611
O -0.957427 -3.915260 -0.548144
H -0.243777 0.787654 1.416796
H 1.508264 0.843283 1.738577
H 0.456872 -0.220750 2.695098
H 5.045853 2.568889 2.455411
H 5.906613 1.028485 2.213173
H 6.461105 2.506649 1.373591
H 3.409512 3.389075 0.828357
H 4.775973 3.672468 -0.281531
H 3.351395 2.744103 -0.833304
H 6.665200 2.252271 -1.403655
H 6.303040 0.892423 -2.497576
H 5.096848 2.181018 -2.259667
H 7.245245 0.277289 0.240717
H 6.560743 -0.930033 -0.879689
H 5.918377 -0.793771 0.777966
H 3.046481 -2.168214 -1.626734
H 1.231315 -3.871713 -1.866078
H -1.188036 -1.386536 2.215862
H -1.584219 -3.811342 2.080094
H -3.079278 -2.863830 1.841857
H -2.743226 -4.644868 0.085324
H -2.816661 -3.004702 -0.621517
47
Mode 0 Frame: * Frequency(6) -606.2300
C -2.687604 -0.304407 0.457965
I -4.251116 1.464001 -0.540026
H -2.548174 0.286164 1.359176
H -3.475417 -1.052667 0.428432
H -1.995614 -0.204405 -0.374128
C 0.638363 0.183261 1.682237
C 0.852740 -0.927769 0.681908
C 2.024424 -1.024984 -0.099261
B 3.243086 -0.041261 -0.036949
O 3.569064 0.800552 0.997592
C 4.651951 1.652759 0.542473
C 5.574550 1.949246 1.714289
C 4.013357 2.940700 0.024292
C 5.290091 0.784844 -0.595851
C 5.866932 1.580411 -1.756521
C 6.315849 -0.220692 -0.074093
O 4.152690 0.019480 -1.064485
C 2.138959 -2.090030 -1.014363
C 1.140787 -3.042805 -1.157617
C -0.020123 -2.947511 -0.384936
C -0.164284 -1.892387 0.534850
N -1.367667 -1.795179 1.290169
C -2.089561 -3.063951 1.414299
C -2.233892 -3.674526 0.036397
O -0.956900 -3.913436 -0.548278
H -0.238390 0.794678 1.413925
H 1.511304 0.841020 1.739879
H 0.455292 -0.220365 2.693645
H 5.045832 2.568927 2.455323
H 5.906607 1.028428 2.213146
H 6.461015 2.506549 1.373438
H 3.409539 3.389122 0.828411
H 4.776014 3.672281 -0.281463
H 3.351301 2.744207 -0.833318
H 6.664919 2.252081 -1.403409
H 6.302991 0.892330 -2.497514
H 5.096731 2.181002 -2.259702
H 7.244955 0.277487 0.240549
H 6.560734 -0.930023 -0.879764
H 5.918438 -0.793869 0.778004
H 3.042025 -2.168191 -1.626063
H 1.231112 -3.873446 -1.862605
H -1.198580 -1.384021 2.207342
H -1.547574 -3.760520 2.077897
H -3.081878 -2.872772 1.848387
H -2.739590 -4.647843 0.094113
H -2.820496 -3.015575 -0.627354
